Program Version,EnergyPlus, Version 8.9.0-40101eaafd, YMD=2018.11.22 10:00
1,5,Environment Title[],Latitude[deg],Longitude[deg],Time Zone[],Elevation[m]
2,8,Day of Simulation[],Month[],Day of Month[],DST Indicator[1=yes 0=no],Hour[],StartMinute[],EndMinute[],DayType
3,5,Cumulative Day of Simulation[],Month[],Day of Month[],DST Indicator[1=yes 0=no],DayType  ! When Daily Meters Requested
4,2,Cumulative Days of Simulation[],Month[]  ! When Monthly Meters Requested
5,1,Cumulative Days of Simulation[] ! When Run Period Meters Requested
6,1,Calendar Year of Simulation[] ! When Annual Meters Requested
10,1,Electricity:Facility [J] !TimeStep
12,7,Electricity:Facility [J] !Daily [Value,Min,Hour,Minute,Max,Hour,Minute]
End of Data Dictionary
1,RUN PERIOD 1,  45.47, -73.75,  -5.00,  36.00
2,1, 1, 1, 0, 1, 0.00,10.00,Sunday
10,16794520.968568107
2,1, 1, 1, 0, 1,10.00,20.00,Sunday
10,20129271.315743977
2,1, 1, 1, 0, 1,20.00,30.00,Sunday
10,24557115.48306514
2,1, 1, 1, 0, 1,30.00,40.00,Sunday
10,16966802.38627211
2,1, 1, 1, 0, 1,40.00,50.00,Sunday
10,16966802.38627211
2,1, 1, 1, 0, 1,50.00,60.00,Sunday
10,29574826.639977248
2,1, 1, 1, 0, 2, 0.00,10.00,Sunday
10,9034010.58931278
2,1, 1, 1, 0, 2,10.00,20.00,Sunday
10,23057894.27577726
2,1, 1, 1, 0, 2,20.00,30.00,Sunday
10,35590936.426042418
2,1, 1, 1, 0, 2,30.00,40.00,Sunday
10,29145722.642180474
2,1, 1, 1, 0, 2,40.00,50.00,Sunday
10,30279085.136819468
2,1, 1, 1, 0, 2,50.00,60.00,Sunday
10,29237467.960462508
2,1, 1, 1, 0, 3, 0.00,10.00,Sunday
10,31416169.830236719
2,1, 1, 1, 0, 3,10.00,20.00,Sunday
10,15715125.37053135
2,1, 1, 1, 0, 3,20.00,30.00,Sunday
10,27065736.988980839
2,1, 1, 1, 0, 3,30.00,40.00,Sunday
10,38926349.3125412
2,1, 1, 1, 0, 3,40.00,50.00,Sunday
10,16966802.38627211
2,1, 1, 1, 0, 3,50.00,60.00,Sunday
10,20225009.95884268
2,1, 1, 1, 0, 4, 0.00,10.00,Sunday
10,24230934.537774218
2,1, 1, 1, 0, 4,10.00,20.00,Sunday
10,16966802.38627211
2,1, 1, 1, 0, 4,20.00,30.00,Sunday
10,13425376.131373357
2,1, 1, 1, 0, 4,30.00,40.00,Sunday
10,17513225.495261976
2,1, 1, 1, 0, 4,40.00,50.00,Sunday
10,19969924.547225834
2,1, 1, 1, 0, 4,50.00,60.00,Sunday
10,34533566.62261237
2,1, 1, 1, 0, 5, 0.00,10.00,Sunday
10,27600527.632925996
2,1, 1, 1, 0, 5,10.00,20.00,Sunday
10,26867334.171433286
2,1, 1, 1, 0, 5,20.00,30.00,Sunday
10,34644968.741300698
2,1, 1, 1, 0, 5,30.00,40.00,Sunday
10,18517176.98258461
2,1, 1, 1, 0, 5,40.00,50.00,Sunday
10,13407673.96209283
2,1, 1, 1, 0, 5,50.00,60.00,Sunday
10,37691754.88519401
2,1, 1, 1, 0, 6, 0.00,10.00,Sunday
10,256596233.66834367
2,1, 1, 1, 0, 6,10.00,20.00,Sunday
10,247356238.90208913
2,1, 1, 1, 0, 6,20.00,30.00,Sunday
10,247356238.90208913
2,1, 1, 1, 0, 6,30.00,40.00,Sunday
10,247356238.90208913
2,1, 1, 1, 0, 6,40.00,50.00,Sunday
10,236323767.727338
2,1, 1, 1, 0, 6,50.00,60.00,Sunday
10,256568714.43090985
2,1, 1, 1, 0, 7, 0.00,10.00,Sunday
10,252233004.00019274
2,1, 1, 1, 0, 7,10.00,20.00,Sunday
10,259532137.11011905
2,1, 1, 1, 0, 7,20.00,30.00,Sunday
10,259534007.4671697
2,1, 1, 1, 0, 7,30.00,40.00,Sunday
10,259518023.78741545
2,1, 1, 1, 0, 7,40.00,50.00,Sunday
10,259531038.3965299
2,1, 1, 1, 0, 7,50.00,60.00,Sunday
10,239637445.9036991
2,1, 1, 1, 0, 8, 0.00,10.00,Sunday
10,285671054.56502488
2,1, 1, 1, 0, 8,10.00,20.00,Sunday
10,272208240.2138255
2,1, 1, 1, 0, 8,20.00,30.00,Sunday
10,303945873.0998046
2,1, 1, 1, 0, 8,30.00,40.00,Sunday
10,277055558.56018868
2,1, 1, 1, 0, 8,40.00,50.00,Sunday
10,299434772.47437599
2,1, 1, 1, 0, 8,50.00,60.00,Sunday
10,274821573.38691017
2,1, 1, 1, 0, 9, 0.00,10.00,Sunday
10,265825674.74627147
2,1, 1, 1, 0, 9,10.00,20.00,Sunday
10,304202053.51977118
2,1, 1, 1, 0, 9,20.00,30.00,Sunday
10,279276959.2727967
2,1, 1, 1, 0, 9,30.00,40.00,Sunday
10,298018910.53278198
2,1, 1, 1, 0, 9,40.00,50.00,Sunday
10,282274966.6833817
2,1, 1, 1, 0, 9,50.00,60.00,Sunday
10,301022164.8943769
2,1, 1, 1, 0,10, 0.00,10.00,Sunday
10,285627558.7803958
2,1, 1, 1, 0,10,10.00,20.00,Sunday
10,271616188.38481816
2,1, 1, 1, 0,10,20.00,30.00,Sunday
10,302138084.9753915
2,1, 1, 1, 0,10,30.00,40.00,Sunday
10,280088778.8485098
2,1, 1, 1, 0,10,40.00,50.00,Sunday
10,303079637.1967122
2,1, 1, 1, 0,10,50.00,60.00,Sunday
10,285054531.4056948
2,1, 1, 1, 0,11, 0.00,10.00,Sunday
10,312235949.2740765
2,1, 1, 1, 0,11,10.00,20.00,Sunday
10,285555876.3170332
2,1, 1, 1, 0,11,20.00,30.00,Sunday
10,265716345.11223717
2,1, 1, 1, 0,11,30.00,40.00,Sunday
10,298722251.9710902
2,1, 1, 1, 0,11,40.00,50.00,Sunday
10,283630611.39301308
2,1, 1, 1, 0,11,50.00,60.00,Sunday
10,299724437.9918776
2,1, 1, 1, 0,12, 0.00,10.00,Sunday
10,289132281.41092267
2,1, 1, 1, 0,12,10.00,20.00,Sunday
10,310185755.34143009
2,1, 1, 1, 0,12,20.00,30.00,Sunday
10,274840387.36435177
2,1, 1, 1, 0,12,30.00,40.00,Sunday
10,265838820.4227628
2,1, 1, 1, 0,12,40.00,50.00,Sunday
10,287926428.8584177
2,1, 1, 1, 0,12,50.00,60.00,Sunday
10,284629009.8989644
2,1, 1, 1, 0,13, 0.00,10.00,Sunday
10,299960599.78361037
2,1, 1, 1, 0,13,10.00,20.00,Sunday
10,286927329.47398146
2,1, 1, 1, 0,13,20.00,30.00,Sunday
10,310800221.752865
2,1, 1, 1, 0,13,30.00,40.00,Sunday
10,275111729.1825375
2,1, 1, 1, 0,13,40.00,50.00,Sunday
10,265908493.03215087
2,1, 1, 1, 0,13,50.00,60.00,Sunday
10,288169640.06334987
2,1, 1, 1, 0,14, 0.00,10.00,Sunday
10,280910415.7311039
2,1, 1, 1, 0,14,10.00,20.00,Sunday
10,298893925.1810641
2,1, 1, 1, 0,14,20.00,30.00,Sunday
10,269801909.06354716
2,1, 1, 1, 0,14,30.00,40.00,Sunday
10,286942315.90308049
2,1, 1, 1, 0,14,40.00,50.00,Sunday
10,266348477.4978926
2,1, 1, 1, 0,14,50.00,60.00,Sunday
10,261846805.60518579
2,1, 1, 1, 0,15, 0.00,10.00,Sunday
10,289081909.6561935
2,1, 1, 1, 0,15,10.00,20.00,Sunday
10,280315700.16060957
2,1, 1, 1, 0,15,20.00,30.00,Sunday
10,296785816.46649029
2,1, 1, 1, 0,15,30.00,40.00,Sunday
10,283200090.1004411
2,1, 1, 1, 0,15,40.00,50.00,Sunday
10,291877208.15555188
2,1, 1, 1, 0,15,50.00,60.00,Sunday
10,283283235.69469729
2,1, 1, 1, 0,16, 0.00,10.00,Sunday
10,262145750.95720733
2,1, 1, 1, 0,16,10.00,20.00,Sunday
10,291587755.62917086
2,1, 1, 1, 0,16,20.00,30.00,Sunday
10,282223571.12248286
2,1, 1, 1, 0,16,30.00,40.00,Sunday
10,298722566.8858006
2,1, 1, 1, 0,16,40.00,50.00,Sunday
10,283902593.5157255
2,1, 1, 1, 0,16,50.00,60.00,Sunday
10,307982338.97973909
2,1, 1, 1, 0,17, 0.00,10.00,Sunday
10,278237330.04516318
2,1, 1, 1, 0,17,10.00,20.00,Sunday
10,261702133.55303265
2,1, 1, 1, 0,17,20.00,30.00,Sunday
10,294205111.0956137
2,1, 1, 1, 0,17,30.00,40.00,Sunday
10,278102427.1659579
2,1, 1, 1, 0,17,40.00,50.00,Sunday
10,295297578.983397
2,1, 1, 1, 0,17,50.00,60.00,Sunday
10,265243708.48982189
2,1, 1, 1, 0,18, 0.00,10.00,Sunday
10,253502804.83266316
2,1, 1, 1, 0,18,10.00,20.00,Sunday
10,256276216.55225493
2,1, 1, 1, 0,18,20.00,30.00,Sunday
10,245110617.28033997
2,1, 1, 1, 0,18,30.00,40.00,Sunday
10,258584432.32801099
2,1, 1, 1, 0,18,40.00,50.00,Sunday
10,259569212.9087069
2,1, 1, 1, 0,18,50.00,60.00,Sunday
10,258335442.75028519
2,1, 1, 1, 0,19, 0.00,10.00,Sunday
10,251990294.06199093
2,1, 1, 1, 0,19,10.00,20.00,Sunday
10,251851072.63215725
2,1, 1, 1, 0,19,20.00,30.00,Sunday
10,251847345.17058695
2,1, 1, 1, 0,19,30.00,40.00,Sunday
10,239607872.5593377
2,1, 1, 1, 0,19,40.00,50.00,Sunday
10,258849002.57444013
2,1, 1, 1, 0,19,50.00,60.00,Sunday
10,260052586.39415137
2,1, 1, 1, 0,20, 0.00,10.00,Sunday
10,258793426.17688934
2,1, 1, 1, 0,20,10.00,20.00,Sunday
10,258732394.8868089
2,1, 1, 1, 0,20,20.00,30.00,Sunday
10,257843740.2021349
2,1, 1, 1, 0,20,30.00,40.00,Sunday
10,255465151.82670567
2,1, 1, 1, 0,20,40.00,50.00,Sunday
10,236323767.727338
2,1, 1, 1, 0,20,50.00,60.00,Sunday
10,253458305.33705706
2,1, 1, 1, 0,21, 0.00,10.00,Sunday
10,267357211.85149697
2,1, 1, 1, 0,21,10.00,20.00,Sunday
10,268656258.4823795
2,1, 1, 1, 0,21,20.00,30.00,Sunday
10,268231529.10316078
2,1, 1, 1, 0,21,30.00,40.00,Sunday
10,268148998.77032677
2,1, 1, 1, 0,21,40.00,50.00,Sunday
10,267970752.77885054
2,1, 1, 1, 0,21,50.00,60.00,Sunday
10,241797275.78067086
2,1, 1, 1, 0,22, 0.00,10.00,Sunday
10,260218432.30275239
2,1, 1, 1, 0,22,10.00,20.00,Sunday
10,263944983.1885222
2,1, 1, 1, 0,22,20.00,30.00,Sunday
10,263037713.99168322
2,1, 1, 1, 0,22,30.00,40.00,Sunday
10,263186950.8860895
2,1, 1, 1, 0,22,40.00,50.00,Sunday
10,266218772.16436149
2,1, 1, 1, 0,22,50.00,60.00,Sunday
10,262840871.91058416
2,1, 1, 1, 0,23, 0.00,10.00,Sunday
10,5934331.211520976
2,1, 1, 1, 0,23,10.00,20.00,Sunday
10,20947338.308702299
2,1, 1, 1, 0,23,20.00,30.00,Sunday
10,16966802.386272115
2,1, 1, 1, 0,23,30.00,40.00,Sunday
10,16966802.38627211
2,1, 1, 1, 0,23,40.00,50.00,Sunday
10,16966802.38627211
2,1, 1, 1, 0,23,50.00,60.00,Sunday
10,22517088.133871139
2,1, 1, 1, 0,24, 0.00,10.00,Sunday
10,27560023.485399434
2,1, 1, 1, 0,24,10.00,20.00,Sunday
10,13204987.870710355
2,1, 1, 1, 0,24,20.00,30.00,Sunday
10,31554738.630578497
2,1, 1, 1, 0,24,30.00,40.00,Sunday
10,31625325.56914947
2,1, 1, 1, 0,24,40.00,50.00,Sunday
10,35095204.426890987
2,1, 1, 1, 0,24,50.00,60.00,Sunday
10,35827941.691256288
3,1, 1, 1, 0,Sunday
12,28886552255.076234,5934331.211520976,23,10,312235949.2740765,11,10
2,2, 1, 2, 0, 1, 0.00,10.00,Monday
10,34736872.23691352
2,2, 1, 2, 0, 1,10.00,20.00,Monday
10,39146690.59776492
2,2, 1, 2, 0, 1,20.00,30.00,Monday
10,11134757.660345683
2,2, 1, 2, 0, 1,30.00,40.00,Monday
10,40679354.8790011
2,2, 1, 2, 0, 1,40.00,50.00,Monday
10,27950967.43893308
2,2, 1, 2, 0, 1,50.00,60.00,Monday
10,16966802.38627211
2,2, 1, 2, 0, 2, 0.00,10.00,Monday
10,16966802.386272115
2,2, 1, 2, 0, 2,10.00,20.00,Monday
10,22031292.47142081
2,2, 1, 2, 0, 2,20.00,30.00,Monday
10,28503051.41428008
2,2, 1, 2, 0, 2,30.00,40.00,Monday
10,10392399.086278495
2,2, 1, 2, 0, 2,40.00,50.00,Monday
10,30284371.394783305
2,2, 1, 2, 0, 2,50.00,60.00,Monday
10,35188650.82026606
2,2, 1, 2, 0, 3, 0.00,10.00,Monday
10,26609640.59224474
2,2, 1, 2, 0, 3,10.00,20.00,Monday
10,32195616.33653586
2,2, 1, 2, 0, 3,20.00,30.00,Monday
10,30754962.094261186
2,2, 1, 2, 0, 3,30.00,40.00,Monday
10,33044880.824341649
2,2, 1, 2, 0, 3,40.00,50.00,Monday
10,15414154.410186913
2,2, 1, 2, 0, 3,50.00,60.00,Monday
10,26187567.721536504
2,2, 1, 2, 0, 4, 0.00,10.00,Monday
10,30584465.46353027
2,2, 1, 2, 0, 4,10.00,20.00,Monday
10,37428658.5500165
2,2, 1, 2, 0, 4,20.00,30.00,Monday
10,16966802.38627211
2,2, 1, 2, 0, 4,30.00,40.00,Monday
10,31114621.46354378
2,2, 1, 2, 0, 4,40.00,50.00,Monday
10,16966802.38627211
2,2, 1, 2, 0, 4,50.00,60.00,Monday
10,15638965.448373365
2,2, 1, 2, 0, 5, 0.00,10.00,Monday
10,19752962.79129318
2,2, 1, 2, 0, 5,10.00,20.00,Monday
10,54442595.464837368
2,2, 1, 2, 0, 5,20.00,30.00,Monday
10,47365120.46434415
2,2, 1, 2, 0, 5,30.00,40.00,Monday
10,45078329.76295268
2,2, 1, 2, 0, 5,40.00,50.00,Monday
10,59102187.66725404
2,2, 1, 2, 0, 5,50.00,60.00,Monday
10,55908617.83648634
2,2, 1, 2, 0, 6, 0.00,10.00,Monday
10,239845814.12525103
2,2, 1, 2, 0, 6,10.00,20.00,Monday
10,264091928.8144916
2,2, 1, 2, 0, 6,20.00,30.00,Monday
10,259274042.05696947
2,2, 1, 2, 0, 6,30.00,40.00,Monday
10,259069255.0824738
2,2, 1, 2, 0, 6,40.00,50.00,Monday
10,259069062.16108216
2,2, 1, 2, 0, 6,50.00,60.00,Monday
10,255011335.1113678
2,2, 1, 2, 0, 7, 0.00,10.00,Monday
10,281085694.7580649
2,2, 1, 2, 0, 7,10.00,20.00,Monday
10,253358083.86199833
2,2, 1, 2, 0, 7,20.00,30.00,Monday
10,280481992.54685786
2,2, 1, 2, 0, 7,30.00,40.00,Monday
10,273222951.85256806
2,2, 1, 2, 0, 7,40.00,50.00,Monday
10,275347733.3179205
2,2, 1, 2, 0, 7,50.00,60.00,Monday
10,262675582.5155231
2,2, 1, 2, 0, 8, 0.00,10.00,Monday
10,308242103.08108386
2,2, 1, 2, 0, 8,10.00,20.00,Monday
10,332074263.0530339
2,2, 1, 2, 0, 8,20.00,30.00,Monday
10,305176214.21879
2,2, 1, 2, 0, 8,30.00,40.00,Monday
10,329069482.8440904
2,2, 1, 2, 0, 8,40.00,50.00,Monday
10,342216158.56480696
2,2, 1, 2, 0, 8,50.00,60.00,Monday
10,328546570.67254266
2,2, 1, 2, 0, 9, 0.00,10.00,Monday
10,364128892.916037
2,2, 1, 2, 0, 9,10.00,20.00,Monday
10,351523623.66513547
2,2, 1, 2, 0, 9,20.00,30.00,Monday
10,367061114.1967587
2,2, 1, 2, 0, 9,30.00,40.00,Monday
10,346357697.9977042
2,2, 1, 2, 0, 9,40.00,50.00,Monday
10,366176366.8221528
2,2, 1, 2, 0, 9,50.00,60.00,Monday
10,350214715.52385428
2,2, 1, 2, 0,10, 0.00,10.00,Monday
10,368070717.24451616
2,2, 1, 2, 0,10,10.00,20.00,Monday
10,355720009.9648565
2,2, 1, 2, 0,10,20.00,30.00,Monday
10,367569949.47184327
2,2, 1, 2, 0,10,30.00,40.00,Monday
10,352929865.30325457
2,2, 1, 2, 0,10,40.00,50.00,Monday
10,368830757.5336032
2,2, 1, 2, 0,10,50.00,60.00,Monday
10,353442264.12569919
2,2, 1, 2, 0,11, 0.00,10.00,Monday
10,374557394.8714857
2,2, 1, 2, 0,11,10.00,20.00,Monday
10,357516919.7183872
2,2, 1, 2, 0,11,20.00,30.00,Monday
10,375639996.9270959
2,2, 1, 2, 0,11,30.00,40.00,Monday
10,357635038.6233275
2,2, 1, 2, 0,11,40.00,50.00,Monday
10,377719280.5265065
2,2, 1, 2, 0,11,50.00,60.00,Monday
10,359039170.3469322
2,2, 1, 2, 0,12, 0.00,10.00,Monday
10,374785676.661834
2,2, 1, 2, 0,12,10.00,20.00,Monday
10,356765703.37020489
2,2, 1, 2, 0,12,20.00,30.00,Monday
10,374074856.123558
2,2, 1, 2, 0,12,30.00,40.00,Monday
10,360315834.79282489
2,2, 1, 2, 0,12,40.00,50.00,Monday
10,369090200.66409066
2,2, 1, 2, 0,12,50.00,60.00,Monday
10,355996459.5464767
2,2, 1, 2, 0,13, 0.00,10.00,Monday
10,378094799.9784927
2,2, 1, 2, 0,13,10.00,20.00,Monday
10,359310733.2054234
2,2, 1, 2, 0,13,20.00,30.00,Monday
10,372879063.93599966
2,2, 1, 2, 0,13,30.00,40.00,Monday
10,356156475.48816528
2,2, 1, 2, 0,13,40.00,50.00,Monday
10,377498946.13644596
2,2, 1, 2, 0,13,50.00,60.00,Monday
10,357469446.79777166
2,2, 1, 2, 0,14, 0.00,10.00,Monday
10,370442342.0886724
2,2, 1, 2, 0,14,10.00,20.00,Monday
10,356657495.5963703
2,2, 1, 2, 0,14,20.00,30.00,Monday
10,376685783.9818018
2,2, 1, 2, 0,14,30.00,40.00,Monday
10,356677650.19227877
2,2, 1, 2, 0,14,40.00,50.00,Monday
10,367391978.7670918
2,2, 1, 2, 0,14,50.00,60.00,Monday
10,358646836.01394727
2,2, 1, 2, 0,15, 0.00,10.00,Monday
10,376637227.6253119
2,2, 1, 2, 0,15,10.00,20.00,Monday
10,356885451.27579519
2,2, 1, 2, 0,15,20.00,30.00,Monday
10,367398353.69579878
2,2, 1, 2, 0,15,30.00,40.00,Monday
10,356303389.97218236
2,2, 1, 2, 0,15,40.00,50.00,Monday
10,379700292.56949499
2,2, 1, 2, 0,15,50.00,60.00,Monday
10,357244415.5218822
2,2, 1, 2, 0,16, 0.00,10.00,Monday
10,364987874.4780741
2,2, 1, 2, 0,16,10.00,20.00,Monday
10,361417868.3647609
2,2, 1, 2, 0,16,20.00,30.00,Monday
10,363367469.38535699
2,2, 1, 2, 0,16,30.00,40.00,Monday
10,364639612.79916366
2,2, 1, 2, 0,16,40.00,50.00,Monday
10,367645027.22338536
2,2, 1, 2, 0,16,50.00,60.00,Monday
10,355167233.4277968
2,2, 1, 2, 0,17, 0.00,10.00,Monday
10,375129089.61019018
2,2, 1, 2, 0,17,10.00,20.00,Monday
10,354083656.40845569
2,2, 1, 2, 0,17,20.00,30.00,Monday
10,361798127.47060289
2,2, 1, 2, 0,17,30.00,40.00,Monday
10,352210369.74210718
2,2, 1, 2, 0,17,40.00,50.00,Monday
10,374546939.944628
2,2, 1, 2, 0,17,50.00,60.00,Monday
10,353054710.79458817
2,2, 1, 2, 0,18, 0.00,10.00,Monday
10,315866299.5733038
2,2, 1, 2, 0,18,10.00,20.00,Monday
10,304777272.1313531
2,2, 1, 2, 0,18,20.00,30.00,Monday
10,303620944.65151807
2,2, 1, 2, 0,18,30.00,40.00,Monday
10,301266111.64704218
2,2, 1, 2, 0,18,40.00,50.00,Monday
10,305094720.5896905
2,2, 1, 2, 0,18,50.00,60.00,Monday
10,303113997.9348441
2,2, 1, 2, 0,19, 0.00,10.00,Monday
10,285390449.3649013
2,2, 1, 2, 0,19,10.00,20.00,Monday
10,285998778.8417076
2,2, 1, 2, 0,19,20.00,30.00,Monday
10,286026682.7383382
2,2, 1, 2, 0,19,30.00,40.00,Monday
10,286101928.508049
2,2, 1, 2, 0,19,40.00,50.00,Monday
10,286188448.7008016
2,2, 1, 2, 0,19,50.00,60.00,Monday
10,286248786.9149232
2,2, 1, 2, 0,20, 0.00,10.00,Monday
10,274699330.34172227
2,2, 1, 2, 0,20,10.00,20.00,Monday
10,280171070.415698
2,2, 1, 2, 0,20,20.00,30.00,Monday
10,275366366.5665593
2,2, 1, 2, 0,20,30.00,40.00,Monday
10,279764560.6983488
2,2, 1, 2, 0,20,40.00,50.00,Monday
10,278961482.79828366
2,2, 1, 2, 0,20,50.00,60.00,Monday
10,277682782.5372208
2,2, 1, 2, 0,21, 0.00,10.00,Monday
10,246230454.18353424
2,2, 1, 2, 0,21,10.00,20.00,Monday
10,295671734.9201934
2,2, 1, 2, 0,21,20.00,30.00,Monday
10,294173868.60657039
2,2, 1, 2, 0,21,30.00,40.00,Monday
10,290143743.5560627
2,2, 1, 2, 0,21,40.00,50.00,Monday
10,293338464.9197151
2,2, 1, 2, 0,21,50.00,60.00,Monday
10,292978223.9638207
2,2, 1, 2, 0,22, 0.00,10.00,Monday
10,278295242.3098674
2,2, 1, 2, 0,22,10.00,20.00,Monday
10,238121738.3782911
2,2, 1, 2, 0,22,20.00,30.00,Monday
10,263872097.9786321
2,2, 1, 2, 0,22,30.00,40.00,Monday
10,267265197.2252
2,2, 1, 2, 0,22,40.00,50.00,Monday
10,262782022.25214733
2,2, 1, 2, 0,22,50.00,60.00,Monday
10,266561694.58700738
2,2, 1, 2, 0,23, 0.00,10.00,Monday
10,18286345.681116053
2,2, 1, 2, 0,23,10.00,20.00,Monday
10,18286345.681116057
2,2, 1, 2, 0,23,20.00,30.00,Monday
10,7253874.506364918
2,2, 1, 2, 0,23,30.00,40.00,Monday
10,48833141.5695645
2,2, 1, 2, 0,23,40.00,50.00,Monday
10,25206394.592783117
2,2, 1, 2, 0,23,50.00,60.00,Monday
10,32291845.284644545
2,2, 1, 2, 0,24, 0.00,10.00,Monday
10,23994572.243613896
2,2, 1, 2, 0,24,10.00,20.00,Monday
10,34290908.31927888
2,2, 1, 2, 0,24,20.00,30.00,Monday
10,32867901.296141749
2,2, 1, 2, 0,24,30.00,40.00,Monday
10,15154146.474284903
2,2, 1, 2, 0,24,40.00,50.00,Monday
10,16966802.38627211
2,2, 1, 2, 0,24,50.00,60.00,Monday
10,35246623.74872042
3,2, 1, 2, 0,Monday
12,34466141802.12516,7253874.506364918,23,30,379700292.56949499,15,50
2,3, 1, 3, 0, 1, 0.00,10.00,Tuesday
10,39787293.479753319
2,3, 1, 3, 0, 1,10.00,20.00,Tuesday
10,16966802.38627211
2,3, 1, 3, 0, 1,20.00,30.00,Tuesday
10,16966802.38627211
2,3, 1, 3, 0, 1,30.00,40.00,Tuesday
10,29898892.984740966
2,3, 1, 3, 0, 1,40.00,50.00,Tuesday
10,11525868.224781434
2,3, 1, 3, 0, 1,50.00,60.00,Tuesday
10,16966802.38627211
2,3, 1, 3, 0, 2, 0.00,10.00,Tuesday
10,31409306.76904261
2,3, 1, 3, 0, 2,10.00,20.00,Tuesday
10,29655715.607840189
2,3, 1, 3, 0, 2,20.00,30.00,Tuesday
10,34306841.00431019
2,3, 1, 3, 0, 2,30.00,40.00,Tuesday
10,31023088.28734084
2,3, 1, 3, 0, 2,40.00,50.00,Tuesday
10,34900603.030078399
2,3, 1, 3, 0, 2,50.00,60.00,Tuesday
10,12699360.008763276
2,3, 1, 3, 0, 3, 0.00,10.00,Tuesday
10,24351017.236104557
2,3, 1, 3, 0, 3,10.00,20.00,Tuesday
10,41970400.29006635
2,3, 1, 3, 0, 3,20.00,30.00,Tuesday
10,16966802.38627211
2,3, 1, 3, 0, 3,30.00,40.00,Tuesday
10,30564101.193436117
2,3, 1, 3, 0, 3,40.00,50.00,Tuesday
10,37061428.19377809
2,3, 1, 3, 0, 3,50.00,60.00,Tuesday
10,16966802.386272115
2,3, 1, 3, 0, 4, 0.00,10.00,Tuesday
10,13498448.598810224
2,3, 1, 3, 0, 4,10.00,20.00,Tuesday
10,17012200.96878241
2,3, 1, 3, 0, 4,20.00,30.00,Tuesday
10,33549357.171987706
2,3, 1, 3, 0, 4,30.00,40.00,Tuesday
10,27527107.63503343
2,3, 1, 3, 0, 4,40.00,50.00,Tuesday
10,23380299.787477718
2,3, 1, 3, 0, 4,50.00,60.00,Tuesday
10,41314683.938250679
2,3, 1, 3, 0, 5, 0.00,10.00,Tuesday
10,28714092.49704954
2,3, 1, 3, 0, 5,10.00,20.00,Tuesday
10,23106060.61894813
2,3, 1, 3, 0, 5,20.00,30.00,Tuesday
10,12778026.963694072
2,3, 1, 3, 0, 5,30.00,40.00,Tuesday
10,61182890.679253619
2,3, 1, 3, 0, 5,40.00,50.00,Tuesday
10,66656791.27586408
2,3, 1, 3, 0, 5,50.00,60.00,Tuesday
10,59504441.1619185
2,3, 1, 3, 0, 6, 0.00,10.00,Tuesday
10,248153118.56569938
2,3, 1, 3, 0, 6,10.00,20.00,Tuesday
10,248153118.56569938
2,3, 1, 3, 0, 6,20.00,30.00,Tuesday
10,237120647.39094825
2,3, 1, 3, 0, 6,30.00,40.00,Tuesday
10,252133654.48812957
2,3, 1, 3, 0, 6,40.00,50.00,Tuesday
10,248153118.56569938
2,3, 1, 3, 0, 6,50.00,60.00,Tuesday
10,248153118.56569938
2,3, 1, 3, 0, 7, 0.00,10.00,Tuesday
10,268574128.27300509
2,3, 1, 3, 0, 7,10.00,20.00,Tuesday
10,264690880.97139345
2,3, 1, 3, 0, 7,20.00,30.00,Tuesday
10,265603967.74284659
2,3, 1, 3, 0, 7,30.00,40.00,Tuesday
10,253336312.6136493
2,3, 1, 3, 0, 7,40.00,50.00,Tuesday
10,268447448.20993688
2,3, 1, 3, 0, 7,50.00,60.00,Tuesday
10,267863942.56960265
2,3, 1, 3, 0, 8, 0.00,10.00,Tuesday
10,302259848.98755577
2,3, 1, 3, 0, 8,10.00,20.00,Tuesday
10,301210176.8997838
2,3, 1, 3, 0, 8,20.00,30.00,Tuesday
10,331464598.185494
2,3, 1, 3, 0, 8,30.00,40.00,Tuesday
10,312751496.2782508
2,3, 1, 3, 0, 8,40.00,50.00,Tuesday
10,306510064.88943377
2,3, 1, 3, 0, 8,50.00,60.00,Tuesday
10,307701163.5803747
2,3, 1, 3, 0, 9, 0.00,10.00,Tuesday
10,370356281.0585189
2,3, 1, 3, 0, 9,10.00,20.00,Tuesday
10,337414457.5586431
2,3, 1, 3, 0, 9,20.00,30.00,Tuesday
10,363706837.9182419
2,3, 1, 3, 0, 9,30.00,40.00,Tuesday
10,338581061.190408
2,3, 1, 3, 0, 9,40.00,50.00,Tuesday
10,362029697.9598921
2,3, 1, 3, 0, 9,50.00,60.00,Tuesday
10,332045754.34934028
2,3, 1, 3, 0,10, 0.00,10.00,Tuesday
10,369518525.4583631
2,3, 1, 3, 0,10,10.00,20.00,Tuesday
10,338945401.0348793
2,3, 1, 3, 0,10,20.00,30.00,Tuesday
10,366439522.671144
2,3, 1, 3, 0,10,30.00,40.00,Tuesday
10,343537905.79042956
2,3, 1, 3, 0,10,40.00,50.00,Tuesday
10,363870853.1069553
2,3, 1, 3, 0,10,50.00,60.00,Tuesday
10,341570339.6940653
2,3, 1, 3, 0,11, 0.00,10.00,Tuesday
10,370998098.67522737
2,3, 1, 3, 0,11,10.00,20.00,Tuesday
10,346734010.28221169
2,3, 1, 3, 0,11,20.00,30.00,Tuesday
10,373349248.9480638
2,3, 1, 3, 0,11,30.00,40.00,Tuesday
10,346450005.1400999
2,3, 1, 3, 0,11,40.00,50.00,Tuesday
10,369435438.5413648
2,3, 1, 3, 0,11,50.00,60.00,Tuesday
10,338427552.07425966
2,3, 1, 3, 0,12, 0.00,10.00,Tuesday
10,371520160.72079208
2,3, 1, 3, 0,12,10.00,20.00,Tuesday
10,340004223.8834953
2,3, 1, 3, 0,12,20.00,30.00,Tuesday
10,369125761.31880906
2,3, 1, 3, 0,12,30.00,40.00,Tuesday
10,334929213.8782754
2,3, 1, 3, 0,12,40.00,50.00,Tuesday
10,360666616.51379778
2,3, 1, 3, 0,12,50.00,60.00,Tuesday
10,354958341.77478227
2,3, 1, 3, 0,13, 0.00,10.00,Tuesday
10,366580600.7568883
2,3, 1, 3, 0,13,10.00,20.00,Tuesday
10,334371252.98394206
2,3, 1, 3, 0,13,20.00,30.00,Tuesday
10,350417244.8306861
2,3, 1, 3, 0,13,30.00,40.00,Tuesday
10,327960174.5589091
2,3, 1, 3, 0,13,40.00,50.00,Tuesday
10,372373861.1611442
2,3, 1, 3, 0,13,50.00,60.00,Tuesday
10,329674018.11286577
2,3, 1, 3, 0,14, 0.00,10.00,Tuesday
10,361727232.33620819
2,3, 1, 3, 0,14,10.00,20.00,Tuesday
10,329494052.8510441
2,3, 1, 3, 0,14,20.00,30.00,Tuesday
10,369793655.1527554
2,3, 1, 3, 0,14,30.00,40.00,Tuesday
10,330134381.1245115
2,3, 1, 3, 0,14,40.00,50.00,Tuesday
10,349001096.0759423
2,3, 1, 3, 0,14,50.00,60.00,Tuesday
10,343164308.2818711
2,3, 1, 3, 0,15, 0.00,10.00,Tuesday
10,371033244.3976655
2,3, 1, 3, 0,15,10.00,20.00,Tuesday
10,333164742.3315364
2,3, 1, 3, 0,15,20.00,30.00,Tuesday
10,351293028.13152328
2,3, 1, 3, 0,15,30.00,40.00,Tuesday
10,327453507.27129366
2,3, 1, 3, 0,15,40.00,50.00,Tuesday
10,365612641.103686
2,3, 1, 3, 0,15,50.00,60.00,Tuesday
10,331847801.6951552
2,3, 1, 3, 0,16, 0.00,10.00,Tuesday
10,352809958.68518689
2,3, 1, 3, 0,16,10.00,20.00,Tuesday
10,327796446.6005098
2,3, 1, 3, 0,16,20.00,30.00,Tuesday
10,366701053.965604
2,3, 1, 3, 0,16,30.00,40.00,Tuesday
10,330069319.5409621
2,3, 1, 3, 0,16,40.00,50.00,Tuesday
10,363100124.7794862
2,3, 1, 3, 0,16,50.00,60.00,Tuesday
10,339906492.4374213
2,3, 1, 3, 0,17, 0.00,10.00,Tuesday
10,310348069.8708754
2,3, 1, 3, 0,17,10.00,20.00,Tuesday
10,307601655.55800136
2,3, 1, 3, 0,17,20.00,30.00,Tuesday
10,310879541.701511
2,3, 1, 3, 0,17,30.00,40.00,Tuesday
10,311345923.85191699
2,3, 1, 3, 0,17,40.00,50.00,Tuesday
10,309717862.2626147
2,3, 1, 3, 0,17,50.00,60.00,Tuesday
10,308020744.1634445
2,3, 1, 3, 0,18, 0.00,10.00,Tuesday
10,307298275.9289569
2,3, 1, 3, 0,18,10.00,20.00,Tuesday
10,303895987.93349918
2,3, 1, 3, 0,18,20.00,30.00,Tuesday
10,303281443.8252034
2,3, 1, 3, 0,18,30.00,40.00,Tuesday
10,307442813.7905921
2,3, 1, 3, 0,18,40.00,50.00,Tuesday
10,303809640.1257104
2,3, 1, 3, 0,18,50.00,60.00,Tuesday
10,304024761.9218815
2,3, 1, 3, 0,19, 0.00,10.00,Tuesday
10,289994552.8612244
2,3, 1, 3, 0,19,10.00,20.00,Tuesday
10,289655364.28138878
2,3, 1, 3, 0,19,20.00,30.00,Tuesday
10,289823993.7444858
2,3, 1, 3, 0,19,30.00,40.00,Tuesday
10,289930817.03906098
2,3, 1, 3, 0,19,40.00,50.00,Tuesday
10,290018202.3222896
2,3, 1, 3, 0,19,50.00,60.00,Tuesday
10,289933987.1273407
2,3, 1, 3, 0,20, 0.00,10.00,Tuesday
10,269665594.71731808
2,3, 1, 3, 0,20,10.00,20.00,Tuesday
10,282525081.29571548
2,3, 1, 3, 0,20,20.00,30.00,Tuesday
10,282185032.52111425
2,3, 1, 3, 0,20,30.00,40.00,Tuesday
10,280783914.4374086
2,3, 1, 3, 0,20,40.00,50.00,Tuesday
10,279740469.23076739
2,3, 1, 3, 0,20,50.00,60.00,Tuesday
10,282392075.1462393
2,3, 1, 3, 0,21, 0.00,10.00,Tuesday
10,249625199.7607704
2,3, 1, 3, 0,21,10.00,20.00,Tuesday
10,293777558.91783586
2,3, 1, 3, 0,21,20.00,30.00,Tuesday
10,297515556.9739318
2,3, 1, 3, 0,21,30.00,40.00,Tuesday
10,297211413.3317378
2,3, 1, 3, 0,21,40.00,50.00,Tuesday
10,296766545.2008511
2,3, 1, 3, 0,21,50.00,60.00,Tuesday
10,292547078.7985402
2,3, 1, 3, 0,22, 0.00,10.00,Tuesday
10,280311065.390802
2,3, 1, 3, 0,22,10.00,20.00,Tuesday
10,242305352.7022583
2,3, 1, 3, 0,22,20.00,30.00,Tuesday
10,262023909.3326194
2,3, 1, 3, 0,22,30.00,40.00,Tuesday
10,267331304.9967811
2,3, 1, 3, 0,22,40.00,50.00,Tuesday
10,268012115.20274664
2,3, 1, 3, 0,22,50.00,60.00,Tuesday
10,267719692.0108369
2,3, 1, 3, 0,23, 0.00,10.00,Tuesday
10,18286345.681116053
2,3, 1, 3, 0,23,10.00,20.00,Tuesday
10,18286345.681116057
2,3, 1, 3, 0,23,20.00,30.00,Tuesday
10,7253874.506364918
2,3, 1, 3, 0,23,30.00,40.00,Tuesday
10,41391792.52246763
2,3, 1, 3, 0,23,40.00,50.00,Tuesday
10,25147740.604874378
2,3, 1, 3, 0,23,50.00,60.00,Tuesday
10,31511225.579832209
2,3, 1, 3, 0,24, 0.00,10.00,Tuesday
10,16966802.38627211
2,3, 1, 3, 0,24,10.00,20.00,Tuesday
10,16966802.38627211
2,3, 1, 3, 0,24,20.00,30.00,Tuesday
10,26018565.28005992
2,3, 1, 3, 0,24,30.00,40.00,Tuesday
10,10382309.37922211
2,3, 1, 3, 0,24,40.00,50.00,Tuesday
10,18038185.465738495
2,3, 1, 3, 0,24,50.00,60.00,Tuesday
10,29430542.092994173
3,3, 1, 3, 0,Tuesday
12,33323731813.435136,7253874.506364918,23,30,373349248.9480638,11,30
2,4, 1, 4, 0, 1, 0.00,10.00,Wednesday
10,24587615.788347398
2,4, 1, 4, 0, 1,10.00,20.00,Wednesday
10,23775660.58782554
2,4, 1, 4, 0, 1,20.00,30.00,Wednesday
10,32440003.1218236
2,4, 1, 4, 0, 1,30.00,40.00,Wednesday
10,31864778.71914677
2,4, 1, 4, 0, 1,40.00,50.00,Wednesday
10,10989678.5333856
2,4, 1, 4, 0, 1,50.00,60.00,Wednesday
10,35714594.4868804
2,4, 1, 4, 0, 2, 0.00,10.00,Wednesday
10,50821051.41305449
2,4, 1, 4, 0, 2,10.00,20.00,Wednesday
10,16966802.38627211
2,4, 1, 4, 0, 2,20.00,30.00,Wednesday
10,26364333.95786454
2,4, 1, 4, 0, 2,30.00,40.00,Wednesday
10,16966802.38627211
2,4, 1, 4, 0, 2,40.00,50.00,Wednesday
10,28987785.113585887
2,4, 1, 4, 0, 2,50.00,60.00,Wednesday
10,14078370.820257668
2,4, 1, 4, 0, 3, 0.00,10.00,Wednesday
10,16966802.38627211
2,4, 1, 4, 0, 3,10.00,20.00,Wednesday
10,20400770.85462269
2,4, 1, 4, 0, 3,20.00,30.00,Wednesday
10,16966802.38627211
2,4, 1, 4, 0, 3,30.00,40.00,Wednesday
10,16966802.38627211
2,4, 1, 4, 0, 3,40.00,50.00,Wednesday
10,16966802.38627211
2,4, 1, 4, 0, 3,50.00,60.00,Wednesday
10,16966802.38627211
2,4, 1, 4, 0, 4, 0.00,10.00,Wednesday
10,5934331.211520976
2,4, 1, 4, 0, 4,10.00,20.00,Wednesday
10,20366041.268232198
2,4, 1, 4, 0, 4,20.00,30.00,Wednesday
10,19512811.812735514
2,4, 1, 4, 0, 4,30.00,40.00,Wednesday
10,21567218.434657795
2,4, 1, 4, 0, 4,40.00,50.00,Wednesday
10,16966802.38627211
2,4, 1, 4, 0, 4,50.00,60.00,Wednesday
10,20299699.3722551
2,4, 1, 4, 0, 5, 0.00,10.00,Wednesday
10,66827322.94310458
2,4, 1, 4, 0, 5,10.00,20.00,Wednesday
10,22951633.03914266
2,4, 1, 4, 0, 5,20.00,30.00,Wednesday
10,19954090.330695869
2,4, 1, 4, 0, 5,30.00,40.00,Wednesday
10,68356771.21870423
2,4, 1, 4, 0, 5,40.00,50.00,Wednesday
10,59425672.01216054
2,4, 1, 4, 0, 5,50.00,60.00,Wednesday
10,59177340.00615344
2,4, 1, 4, 0, 6, 0.00,10.00,Wednesday
10,250033722.43346609
2,4, 1, 4, 0, 6,10.00,20.00,Wednesday
10,255601437.16971866
2,4, 1, 4, 0, 6,20.00,30.00,Wednesday
10,233884123.59406016
2,4, 1, 4, 0, 6,30.00,40.00,Wednesday
10,263939202.3316225
2,4, 1, 4, 0, 6,40.00,50.00,Wednesday
10,258149771.35966746
2,4, 1, 4, 0, 6,50.00,60.00,Wednesday
10,257657476.87390495
2,4, 1, 4, 0, 7, 0.00,10.00,Wednesday
10,284579595.42044928
2,4, 1, 4, 0, 7,10.00,20.00,Wednesday
10,276700465.57720819
2,4, 1, 4, 0, 7,20.00,30.00,Wednesday
10,276830763.216121
2,4, 1, 4, 0, 7,30.00,40.00,Wednesday
10,253425576.03930439
2,4, 1, 4, 0, 7,40.00,50.00,Wednesday
10,282209939.62277099
2,4, 1, 4, 0, 7,50.00,60.00,Wednesday
10,277107452.4856861
2,4, 1, 4, 0, 8, 0.00,10.00,Wednesday
10,313922282.2657488
2,4, 1, 4, 0, 8,10.00,20.00,Wednesday
10,324293399.6691003
2,4, 1, 4, 0, 8,20.00,30.00,Wednesday
10,334119150.735969
2,4, 1, 4, 0, 8,30.00,40.00,Wednesday
10,325686566.1324222
2,4, 1, 4, 0, 8,40.00,50.00,Wednesday
10,312469950.58819499
2,4, 1, 4, 0, 8,50.00,60.00,Wednesday
10,331440852.20090606
2,4, 1, 4, 0, 9, 0.00,10.00,Wednesday
10,370930098.78766468
2,4, 1, 4, 0, 9,10.00,20.00,Wednesday
10,356218818.0346082
2,4, 1, 4, 0, 9,20.00,30.00,Wednesday
10,365457700.1822569
2,4, 1, 4, 0, 9,30.00,40.00,Wednesday
10,345025851.86591836
2,4, 1, 4, 0, 9,40.00,50.00,Wednesday
10,363524468.5779083
2,4, 1, 4, 0, 9,50.00,60.00,Wednesday
10,342866595.9621719
2,4, 1, 4, 0,10, 0.00,10.00,Wednesday
10,364226767.5784983
2,4, 1, 4, 0,10,10.00,20.00,Wednesday
10,350454024.1462625
2,4, 1, 4, 0,10,20.00,30.00,Wednesday
10,365283322.2501385
2,4, 1, 4, 0,10,30.00,40.00,Wednesday